
Host: cs276.hpc.nyu.edu

Timers On : Thu Nov 30 11:47:07 2023
Timers Off: Thu Nov 30 11:47:07 2023

Wall Time:        0.39 seconds

                                                       Time (seconds)
Module                                       User      System        Wall        Calls

--------------------------------------------------------------------------------------

**************************************************************************************
