ITEM: TIMESTEP
100000
ITEM: NUMBER OF ATOMS
2048
ITEM: BOX BOUNDS pp pp pp
0.0000000000000000e+00 1.1093780389610155e+01
0.0000000000000000e+00 1.1093780389610155e+01
0.0000000000000000e+00 1.1093780389610155e+01
ITEM: ATOMS id type xs ys zs
14 1 0.440888 0.0613315 -0.000279017
21 1 0.625607 0.997455 1.00088
20 1 0.4994 0.0609416 0.0683833
22 1 0.691171 0.0601673 -0.000734766
41 1 0.252759 0.120667 0.000628333
45 1 0.37406 0.121816 4.23294e-05
49 1 0.503836 0.123713 0.000661164
61 1 0.876515 0.127729 0.000685193
38 1 0.187989 0.188678 2.90379e-05
42 1 0.314072 0.192702 0.00189808
46 1 0.437548 0.188247 0.00182872
50 1 0.567719 0.190316 0.00316732
54 1 0.684048 0.190392 -0.00042665
58 1 0.814921 0.185611 0.998313
69 1 0.125708 0.245003 0.00187347
73 1 0.25438 0.24873 0.00414534
85 1 0.624551 0.253489 0.998865
89 1 0.748905 0.249163 0.998362
95 1 0.935211 0.251707 0.0630125
74 1 0.314917 0.313328 0.0026779
78 1 0.438791 0.316067 0.998252
82 1 0.568284 0.317221 0.000112739
86 1 0.692474 0.31375 0.995973
90 1 0.812852 0.313585 0.00166215
94 1 0.937793 0.31347 0.000342888
105 1 0.252071 0.376029 0.999188
109 1 0.379212 0.375851 0.998707
113 1 0.502228 0.37686 0.00158383
117 1 0.627175 0.376217 0.00330228
121 1 0.752048 0.379803 0.998273
125 1 0.877039 0.373937 1.00011
104 1 0.129322 0.433615 0.0622115
110 1 0.439213 0.438724 0.99638
118 1 0.687614 0.442519 1.00062
139 1 0.312459 0.499969 0.0619002
145 1 0.502093 0.500666 0.000885342
149 1 0.626416 0.501013 1.00023
153 1 0.7501 0.501024 0.00141189
157 1 0.871985 0.497223 0.999444
134 1 0.186562 0.559615 -0.000403958
138 1 0.31502 0.564394 0.998465
142 1 0.437786 0.564992 0.00112689
146 1 0.563315 0.563947 0.998041
150 1 0.688433 0.56445 0.00244477
154 1 0.810531 0.563589 2.86184e-05
177 1 0.497919 0.626452 0.00276325
181 1 0.622766 0.626954 -0.00029129
185 1 0.753173 0.628347 0.994636
189 1 0.87633 0.622968 1.00023
166 1 0.188897 0.685349 0.996168
174 1 0.436297 0.687919 0.00333492
178 1 0.561057 0.687868 0.00378584
182 1 0.691529 0.685409 0.00311777
186 1 0.81648 0.686142 0.997493
190 1 0.935208 0.688705 0.996697
193 1 0.00377458 0.750348 0.994843
213 1 0.626874 0.746758 0.999735
221 1 0.874549 0.750863 0.996783
198 1 0.187449 0.814461 0.997316
216 1 0.626624 0.807617 0.0584245
214 1 0.685813 0.811085 0.996629
222 1 0.93469 0.81816 0.997243
225 1 0.00439291 0.874841 -9.6118e-05
233 1 0.248273 0.872567 1.00029
241 1 0.50129 0.86935 -0.000238032
249 1 0.752438 0.876864 0.998729
230 1 0.186544 0.937782 0.999007
5 1 0.124233 0.00213678 0.00311336
25 1 0.751708 0.995655 0.00245232
3 1 0.0648006 -0.000262663 0.0638314
7 1 0.190506 0.999313 0.0574742
31 1 0.937129 0.0028252 0.0667352
8 1 0.124972 0.0643029 0.0615585
12 1 0.25612 0.058018 0.0639354
16 1 0.377837 0.0647218 0.0580132
24 1 0.631129 0.0621425 0.0594072
28 1 0.746376 0.0623715 0.0625602
32 1 0.868324 0.0585626 0.0639253
4 1 1.00019 0.0630557 0.064685
35 1 0.0588251 0.126997 0.061671
39 1 0.187882 0.123518 0.0642374
43 1 0.314276 0.124957 0.0661349
47 1 0.44121 0.12748 0.0637045
51 1 0.564291 0.120977 0.0635547
55 1 0.68694 0.124494 0.0602262
59 1 0.809775 0.12809 0.0633268
63 1 0.934696 0.126599 0.0626535
40 1 0.126742 0.186852 0.0639969
44 1 0.251798 0.185038 0.06286
48 1 0.375913 0.187364 0.0643322
52 1 0.506351 0.186385 0.0624371
56 1 0.629457 0.1881 0.0650128
60 1 0.748665 0.190191 0.0629911
64 1 0.873457 0.189447 0.0594064
36 1 0.99663 0.184715 0.0646232
67 1 0.0634356 0.252045 0.0625832
71 1 0.189091 0.250499 0.0643375
75 1 0.31623 0.248046 0.0660895
79 1 0.439467 0.252586 0.060326
83 1 0.564108 0.251867 0.0628367
87 1 0.687523 0.253455 0.0619133
91 1 0.807642 0.252635 0.0624393
72 1 0.124797 0.308438 0.0620141
76 1 0.252103 0.312903 0.0678813
80 1 0.379713 0.316532 0.0597754
84 1 0.499655 0.314147 0.0610504
88 1 0.625119 0.315964 0.0690915
92 1 0.747992 0.316328 0.0635517
96 1 0.873328 0.313749 0.0633252
68 1 0.999899 0.308994 0.0603036
99 1 0.065617 0.379457 0.0623096
103 1 0.194585 0.376166 0.0628697
107 1 0.31676 0.374254 0.0652013
111 1 0.436456 0.379431 0.0593107
115 1 0.56684 0.375157 0.0681623
119 1 0.687161 0.379233 0.0645851
123 1 0.81288 0.375162 0.0580172
127 1 0.941709 0.374237 0.0630572
100 1 0.00282767 0.436678 0.0615421
108 1 0.255822 0.437275 0.065558
112 1 0.376551 0.438212 0.060249
116 1 0.502163 0.436477 0.0650835
120 1 0.625828 0.437773 0.0670313
124 1 0.747042 0.441867 0.0621561
128 1 0.874602 0.43916 0.0633653
131 1 0.061729 0.49651 0.0651116
135 1 0.188602 0.498025 0.061533
143 1 0.439833 0.502604 0.0594352
147 1 0.563681 0.499214 0.0595798
151 1 0.6869 0.499212 0.0608162
155 1 0.811507 0.499548 0.0604984
159 1 0.939699 0.49888 0.0652088
132 1 1.00016 0.557889 0.0653756
136 1 0.124945 0.558617 0.0628275
140 1 0.246333 0.560261 0.0561174
144 1 0.373249 0.559489 0.0637607
148 1 0.499974 0.564922 0.0637532
152 1 0.625301 0.559448 0.0664948
156 1 0.753813 0.563884 0.0636897
160 1 0.876524 0.557461 0.0625521
163 1 0.059618 0.623986 0.0598708
167 1 0.187144 0.620357 0.0634392
171 1 0.308258 0.624144 0.0615037
175 1 0.436526 0.628664 0.0644608
179 1 0.564015 0.625049 0.0637728
183 1 0.690473 0.626622 0.0647979
187 1 0.81375 0.625815 0.0609023
191 1 0.934951 0.622412 0.0656215
164 1 0.995181 0.684893 0.0580384
168 1 0.125965 0.686032 0.0541966
172 1 0.253081 0.687118 0.0629627
176 1 0.375917 0.686704 0.0698937
180 1 0.495589 0.688602 0.0628519
184 1 0.626463 0.690571 0.0648184
188 1 0.750695 0.687817 0.0607855
192 1 0.874919 0.6885 0.0582799
195 1 0.0620092 0.747923 0.0588562
199 1 0.186155 0.751313 0.0606322
203 1 0.313605 0.748293 0.0672087
207 1 0.43346 0.75598 0.0607881
211 1 0.565498 0.748774 0.0622691
215 1 0.68729 0.748691 0.0645601
219 1 0.814308 0.749604 0.0627781
223 1 0.936383 0.75375 0.0598399
196 1 0.00101602 0.808684 0.0585922
200 1 0.127796 0.809539 0.0568904
204 1 0.251443 0.807806 0.0636492
208 1 0.374256 0.816024 0.0623829
212 1 0.502426 0.809623 0.0639502
220 1 0.750349 0.814227 0.060584
224 1 0.869351 0.814708 0.0630522
227 1 0.0664053 0.877049 0.0597288
231 1 0.187721 0.869185 0.0676681
235 1 0.312678 0.877957 0.0646886
239 1 0.43921 0.869299 0.0623084
243 1 0.563989 0.8697 0.0592519
247 1 0.686696 0.870886 0.0644613
251 1 0.814556 0.877156 0.0636739
255 1 0.935865 0.869985 0.0629239
232 1 0.130613 0.934562 0.0623777
236 1 0.250734 0.936592 0.0687075
240 1 0.378358 0.935098 0.0646856
244 1 0.501613 0.934066 0.0601726
248 1 0.626216 0.936845 0.0634905
252 1 0.749754 0.932712 0.0630379
256 1 0.876118 0.940519 0.0661767
228 1 1.00082 0.941737 0.0615772
11 1 0.317214 0.996699 0.0621056
15 1 0.439439 1.00109 0.063545
19 1 0.567649 0.00624063 0.0638857
23 1 0.687303 0.994227 0.0651125
27 1 0.807312 0.996426 0.0645228
257 1 0.00266995 0.994166 0.126209
261 1 0.128809 1.0011 0.122212
266 1 0.318284 0.0626329 0.122254
269 1 0.374131 0.998456 0.124855
273 1 0.498494 0.993009 0.124018
274 1 0.56088 0.0657731 0.125684
258 1 0.064699 0.055555 0.129496
262 1 0.1885 0.0655122 0.123329
270 1 0.435464 0.0641086 0.127694
278 1 0.688472 0.0631551 0.122541
282 1 0.811716 0.0615019 0.12858
286 1 0.936057 0.0664305 0.126433
289 1 1.00096 0.126239 0.1305
293 1 0.127327 0.122799 0.125007
297 1 0.249544 0.120811 0.126342
301 1 0.379605 0.124341 0.127622
305 1 0.502376 0.128875 0.127498
309 1 0.624587 0.124645 0.123857
313 1 0.748748 0.12341 0.126099
317 1 0.877805 0.128553 0.123313
290 1 0.0661166 0.189112 0.125902
294 1 0.190302 0.185843 0.122719
298 1 0.31335 0.186938 0.125534
302 1 0.439896 0.185626 0.129233
306 1 0.567292 0.188811 0.126595
310 1 0.688396 0.190416 0.128218
314 1 0.8124 0.187876 0.124894
318 1 0.936845 0.190254 0.121288
325 1 0.125513 0.246811 0.122298
329 1 0.250319 0.251279 0.125897
333 1 0.378564 0.249242 0.126494
337 1 0.499617 0.247224 0.126258
341 1 0.625328 0.252371 0.124786
345 1 0.750011 0.252838 0.123338
349 1 0.875041 0.249066 0.127534
321 1 0.00427881 0.249356 0.124333
322 1 0.0645046 0.310337 0.127917
326 1 0.190865 0.313815 0.125042
330 1 0.320079 0.30834 0.129263
334 1 0.439342 0.312726 0.127048
338 1 0.560244 0.31795 0.127982
342 1 0.689505 0.317036 0.123223
346 1 0.812798 0.315955 0.125482
350 1 0.938005 0.3142 0.12514
353 1 0.99924 0.375595 0.120636
357 1 0.122216 0.37819 0.123114
361 1 0.255194 0.37298 0.127238
365 1 0.380444 0.377891 0.119594
369 1 0.500335 0.377858 0.124431
373 1 0.622265 0.375942 0.130165
377 1 0.74792 0.374455 0.12554
381 1 0.876247 0.376789 0.121891
354 1 0.0611283 0.440088 0.126437
358 1 0.191739 0.432934 0.126401
362 1 0.318766 0.437203 0.125787
366 1 0.440417 0.439641 0.125288
370 1 0.561425 0.436441 0.127697
374 1 0.688494 0.439588 0.128359
378 1 0.809982 0.437296 0.120808
382 1 0.937652 0.432566 0.128294
385 1 0.997719 0.494615 0.125731
389 1 0.126509 0.497015 0.130875
393 1 0.25291 0.501423 0.122886
397 1 0.380578 0.498217 0.123333
401 1 0.504115 0.501618 0.126109
405 1 0.629314 0.498899 0.125099
409 1 0.749392 0.501896 0.126177
413 1 0.875762 0.497723 0.127909
386 1 0.0602824 0.558958 0.12497
390 1 0.189322 0.560858 0.123406
394 1 0.307486 0.560366 0.124814
398 1 0.440808 0.560336 0.123888
402 1 0.564118 0.561868 0.123449
406 1 0.688966 0.5643 0.127322
410 1 0.814137 0.561552 0.122027
414 1 0.9369 0.560087 0.128931
417 1 1.00066 0.622101 0.123102
421 1 0.122367 0.621326 0.124371
425 1 0.252242 0.622662 0.126567
429 1 0.371972 0.619426 0.125845
433 1 0.499181 0.625642 0.125584
437 1 0.625833 0.621905 0.123708
441 1 0.751697 0.624473 0.124655
445 1 0.874609 0.624347 0.120304
418 1 0.0609275 0.684348 0.118142
422 1 0.187828 0.684383 0.118488
426 1 0.30929 0.686632 0.129546
430 1 0.437638 0.689838 0.132391
434 1 0.560054 0.6868 0.124215
438 1 0.686115 0.688544 0.123322
442 1 0.813877 0.684127 0.12221
446 1 0.937712 0.685586 0.12147
449 1 0.00249732 0.745102 0.118287
453 1 0.121758 0.751661 0.119995
457 1 0.246639 0.742662 0.123821
461 1 0.373313 0.749248 0.127019
465 1 0.500474 0.749283 0.126489
469 1 0.62394 0.749522 0.126426
473 1 0.750609 0.747795 0.1276
477 1 0.878675 0.752363 0.121715
450 1 0.0625224 0.811897 0.117383
454 1 0.183538 0.808536 0.126659
458 1 0.310605 0.812364 0.123449
462 1 0.437113 0.812277 0.123015
466 1 0.562188 0.810827 0.127388
470 1 0.688895 0.809322 0.127792
474 1 0.815179 0.80859 0.126167
478 1 0.940674 0.81333 0.125856
485 1 0.127582 0.872125 0.125836
489 1 0.250253 0.874727 0.125295
493 1 0.373817 0.873115 0.128013
497 1 0.50851 0.872939 0.129221
501 1 0.624672 0.8692 0.119733
505 1 0.748563 0.870677 0.128806
509 1 0.876261 0.874541 0.122825
481 1 0.000118664 0.876176 0.121992
482 1 0.0689676 0.936416 0.12204
486 1 0.187442 0.94016 0.128159
490 1 0.313301 0.939458 0.127023
494 1 0.439413 0.9303 0.124355
498 1 0.564432 0.93423 0.123295
502 1 0.687715 0.937209 0.126993
506 1 0.817317 0.935975 0.127888
510 1 0.941344 0.937369 0.125314
265 1 0.245495 1.00133 0.12835
277 1 0.623698 0.00231974 0.125552
281 1 0.752574 0.99969 0.127054
285 1 0.871872 0.000619011 0.127522
263 1 0.184905 1.00157 0.192905
287 1 0.939918 0.998538 0.184061
264 1 0.123632 0.0623295 0.185429
268 1 0.248924 0.0634927 0.185616
272 1 0.374057 0.0628004 0.19099
276 1 0.502825 0.0646224 0.188111
280 1 0.627223 0.0637385 0.186962
284 1 0.752245 0.0666943 0.18878
288 1 0.871829 0.0638872 0.188239
260 1 0.00251157 0.0630173 0.185642
291 1 0.0647333 0.120615 0.187097
295 1 0.190725 0.126925 0.186834
299 1 0.311917 0.124863 0.187096
303 1 0.437716 0.1221 0.190477
307 1 0.568965 0.125655 0.187881
311 1 0.683552 0.124188 0.185099
315 1 0.810765 0.126557 0.185442
319 1 0.935221 0.125414 0.192012
296 1 0.12928 0.186929 0.189887
300 1 0.249675 0.187882 0.187609
304 1 0.372338 0.186911 0.190932
308 1 0.503294 0.185689 0.189463
312 1 0.626818 0.189519 0.186689
316 1 0.751276 0.188528 0.190278
320 1 0.871702 0.186408 0.189206
292 1 0.999889 0.183877 0.191041
323 1 0.0669059 0.247788 0.185718
327 1 0.186609 0.250769 0.186744
331 1 0.311292 0.244722 0.188159
335 1 0.442166 0.249653 0.186451
339 1 0.561351 0.252814 0.1888
343 1 0.69034 0.253979 0.186882
347 1 0.812398 0.25 0.189295
351 1 0.936821 0.251155 0.186271
328 1 0.12573 0.309142 0.187571
332 1 0.250492 0.309517 0.186502
336 1 0.38164 0.309003 0.187897
340 1 0.499611 0.3167 0.191556
344 1 0.623738 0.311963 0.186754
348 1 0.747111 0.314797 0.18822
352 1 0.872393 0.314546 0.187817
324 1 0.999346 0.313802 0.189229
355 1 0.0594011 0.373234 0.182836
359 1 0.186944 0.372792 0.188844
363 1 0.317493 0.376265 0.186002
367 1 0.435217 0.37489 0.185626
371 1 0.563724 0.378428 0.191722
375 1 0.693282 0.375874 0.189716
379 1 0.812413 0.377063 0.184039
383 1 0.934381 0.371383 0.187828
360 1 0.126533 0.433715 0.189203
364 1 0.251572 0.438357 0.187011
368 1 0.379144 0.437394 0.187404
372 1 0.50267 0.437353 0.193472
376 1 0.630786 0.438439 0.188711
380 1 0.75331 0.438866 0.188672
384 1 0.874029 0.435659 0.187803
356 1 0.995381 0.432253 0.18796
387 1 0.0613528 0.50656 0.189712
391 1 0.185722 0.498189 0.189157
395 1 0.312162 0.499582 0.185518
399 1 0.443374 0.498144 0.188046
403 1 0.563655 0.497952 0.192515
407 1 0.691136 0.500683 0.189537
411 1 0.811486 0.499796 0.181094
415 1 0.936478 0.497651 0.188794
388 1 0.998247 0.560641 0.191202
392 1 0.12364 0.562018 0.185468
396 1 0.248178 0.559783 0.18992
400 1 0.379173 0.555019 0.182223
404 1 0.504749 0.561998 0.188598
408 1 0.627571 0.564598 0.189026
412 1 0.752037 0.562179 0.184102
416 1 0.874711 0.565084 0.185135
419 1 0.0636165 0.622279 0.185287
423 1 0.190632 0.621688 0.183252
427 1 0.312472 0.621528 0.189901
431 1 0.435691 0.621412 0.187417
435 1 0.564333 0.626055 0.186686
439 1 0.689142 0.628629 0.185407
443 1 0.818789 0.625551 0.186144
447 1 0.934271 0.627987 0.183194
420 1 0.999269 0.687674 0.186684
424 1 0.127098 0.684264 0.181817
428 1 0.246375 0.685197 0.190239
432 1 0.370824 0.684088 0.186845
436 1 0.502848 0.684995 0.187994
440 1 0.625442 0.689777 0.188415
444 1 0.75167 0.688434 0.188247
448 1 0.873388 0.688032 0.182188
451 1 0.0686826 0.749302 0.183196
455 1 0.183912 0.748162 0.182795
459 1 0.310378 0.749785 0.185146
463 1 0.431145 0.75636 0.187458
467 1 0.561566 0.748663 0.18925
471 1 0.688371 0.747321 0.19064
475 1 0.814714 0.748053 0.184215
479 1 0.939132 0.749711 0.185593
456 1 0.12355 0.814039 0.18218
460 1 0.252731 0.810433 0.185548
464 1 0.368715 0.81528 0.191828
468 1 0.498955 0.812555 0.185748
472 1 0.62285 0.811632 0.18932
476 1 0.744578 0.811699 0.189253
480 1 0.87746 0.811774 0.186207
452 1 0.00592709 0.813065 0.18375
483 1 0.0615647 0.877398 0.18638
487 1 0.190798 0.876247 0.187659
491 1 0.312073 0.877875 0.189526
495 1 0.439945 0.873269 0.18568
499 1 0.563315 0.870783 0.18924
503 1 0.687759 0.876469 0.186232
507 1 0.813044 0.867677 0.186413
511 1 0.939594 0.874697 0.182176
484 1 0.00208546 0.934879 0.186429
488 1 0.129699 0.934099 0.188685
492 1 0.251423 0.939253 0.186775
496 1 0.377478 0.940596 0.190792
500 1 0.505943 0.938222 0.191085
504 1 0.627306 0.940302 0.186037
508 1 0.75175 0.935114 0.184917
512 1 0.874687 0.933322 0.188744
259 1 0.0704035 0.991816 0.189782
267 1 0.311436 0.00384981 0.18304
271 1 0.438426 0.0018461 0.190962
275 1 0.561308 8.49985e-05 0.191872
279 1 0.688975 0.00359287 0.186648
283 1 0.813426 0.00272716 0.187147
518 1 0.188008 0.0641016 0.249599
526 1 0.439864 0.064693 0.252995
529 1 0.498155 0.00386871 0.250555
533 1 0.630274 0.00664492 0.249354
537 1 0.752474 0.998509 0.246643
514 1 0.0641534 0.0600996 0.249515
522 1 0.31481 0.061729 0.254626
530 1 0.5646 0.0641215 0.248863
534 1 0.692326 0.0654759 0.247275
538 1 0.811386 0.0628584 0.249757
542 1 0.941925 0.0600167 0.245472
549 1 0.125355 0.121596 0.252566
553 1 0.248709 0.124698 0.250062
557 1 0.375815 0.121959 0.248004
561 1 0.501375 0.123591 0.249954
565 1 0.627544 0.126584 0.250668
569 1 0.755823 0.125243 0.250271
573 1 0.872242 0.125651 0.24796
545 1 1.00125 0.123615 0.251383
546 1 0.0660864 0.184823 0.24499
550 1 0.188765 0.18826 0.251874
554 1 0.31171 0.182215 0.252399
558 1 0.437101 0.183096 0.248406
562 1 0.56546 0.18805 0.248267
566 1 0.686831 0.190678 0.246058
570 1 0.812964 0.192216 0.251198
574 1 0.933424 0.186161 0.25392
581 1 0.125637 0.250656 0.248451
585 1 0.247716 0.248768 0.250482
589 1 0.37393 0.251272 0.250623
593 1 0.501261 0.248404 0.251263
597 1 0.623864 0.248876 0.246366
601 1 0.750983 0.252732 0.253965
605 1 0.874257 0.250396 0.250223
577 1 0.00298002 0.249357 0.246271
578 1 0.0610324 0.311343 0.247829
582 1 0.187902 0.311262 0.250666
586 1 0.310863 0.31601 0.248708
590 1 0.437914 0.312193 0.254972
594 1 0.564134 0.319843 0.25015
598 1 0.686111 0.307938 0.253119
602 1 0.813245 0.315227 0.252442
606 1 0.935955 0.311575 0.248272
613 1 0.123037 0.371768 0.249699
617 1 0.245226 0.371558 0.248558
621 1 0.377427 0.374817 0.248278
625 1 0.501776 0.377073 0.254614
629 1 0.628536 0.379961 0.254705
633 1 0.748325 0.372286 0.253097
637 1 0.874979 0.374995 0.25294
609 1 0.997168 0.376821 0.251284
610 1 0.061246 0.434995 0.247047
614 1 0.186633 0.432821 0.252789
618 1 0.316682 0.438203 0.250456
622 1 0.439307 0.440704 0.255336
626 1 0.571183 0.438706 0.252797
630 1 0.690493 0.440451 0.25206
634 1 0.81328 0.434091 0.250085
638 1 0.937165 0.439715 0.248835
641 1 0.000503878 0.499893 0.249401
645 1 0.123859 0.499439 0.250639
649 1 0.250629 0.499645 0.247575
653 1 0.374791 0.49919 0.248261
657 1 0.504782 0.499123 0.256008
661 1 0.627797 0.502628 0.251225
665 1 0.751303 0.501703 0.251821
669 1 0.869714 0.498385 0.247195
642 1 0.0641928 0.564148 0.252598
646 1 0.184579 0.561096 0.248265
650 1 0.314875 0.56129 0.253134
654 1 0.446092 0.560121 0.245449
658 1 0.56562 0.563783 0.250528
662 1 0.693488 0.565105 0.249835
666 1 0.810247 0.566381 0.250065
670 1 0.938867 0.562607 0.252362
673 1 0.00325822 0.622359 0.254012
677 1 0.129198 0.624098 0.246764
681 1 0.247993 0.628669 0.248256
685 1 0.376194 0.619114 0.249044
689 1 0.500384 0.624959 0.247704
693 1 0.62233 0.627961 0.251354
697 1 0.751393 0.628743 0.249507
701 1 0.878018 0.623807 0.248557
674 1 0.0585707 0.686369 0.248934
678 1 0.188156 0.689027 0.253651
682 1 0.309324 0.684081 0.246998
686 1 0.439564 0.689072 0.248199
690 1 0.562845 0.689974 0.251225
694 1 0.683896 0.685376 0.254838
698 1 0.816485 0.689968 0.249942
702 1 0.940386 0.683409 0.244909
705 1 0.00101969 0.750411 0.246494
709 1 0.127282 0.745776 0.244411
713 1 0.25151 0.750377 0.249528
717 1 0.373846 0.744584 0.253789
721 1 0.49999 0.753291 0.253689
725 1 0.61929 0.750564 0.252377
729 1 0.751282 0.74981 0.250565
733 1 0.877522 0.747518 0.245692
706 1 0.0665324 0.812379 0.244172
710 1 0.185826 0.807142 0.243592
714 1 0.311614 0.813902 0.251011
718 1 0.439382 0.812834 0.252208
722 1 0.561122 0.811882 0.251449
726 1 0.68721 0.808552 0.252311
730 1 0.814861 0.808638 0.251116
734 1 0.938309 0.810068 0.247666
741 1 0.12811 0.872999 0.249889
745 1 0.250477 0.872094 0.250559
749 1 0.375905 0.880883 0.247648
753 1 0.501087 0.871808 0.250725
757 1 0.627009 0.874005 0.246896
761 1 0.750989 0.872057 0.249675
765 1 0.879534 0.869871 0.246326
737 1 0.00139929 0.874594 0.248689
738 1 0.065043 0.93266 0.250626
742 1 0.188824 0.935313 0.253706
746 1 0.316945 0.939902 0.249337
750 1 0.440019 0.936789 0.251097
754 1 0.563528 0.93835 0.250084
762 1 0.813813 0.933493 0.24685
766 1 0.94158 0.93628 0.247146
517 1 0.127117 0.999 0.251982
521 1 0.249451 0.00301302 0.248106
525 1 0.376437 0.000898987 0.249626
758 1 0.688082 0.93994 0.247564
541 1 0.881509 -0.00113305 0.24758
513 1 0.00566854 0.997144 0.242959
520 1 0.127326 0.0594736 0.311972
523 1 0.309574 0.996841 0.311862
527 1 0.439383 -0.00217823 0.313685
531 1 0.569259 0.995064 0.312233
535 1 0.69033 -3.35986e-05 0.309781
539 1 0.815784 0.996876 0.305631
543 1 0.941385 1.00003 0.309506
516 1 -0.000881005 0.0628411 0.307677
524 1 0.25308 0.0628851 0.312918
528 1 0.37533 0.06166 0.313156
532 1 0.502177 0.062759 0.313419
536 1 0.626134 0.0660062 0.311962
567 1 0.688927 0.127794 0.306917
540 1 0.747649 0.0630704 0.314169
544 1 0.872442 0.0620357 0.308768
547 1 0.065544 0.122085 0.314173
551 1 0.18855 0.124732 0.313304
555 1 0.310052 0.127649 0.314252
559 1 0.43977 0.123592 0.314169
563 1 0.559218 0.127241 0.312018
571 1 0.812148 0.127096 0.313692
575 1 0.937199 0.122307 0.309416
552 1 0.124032 0.18598 0.311662
556 1 0.246993 0.187163 0.310921
560 1 0.374246 0.186071 0.3124
564 1 0.498264 0.187642 0.312216
568 1 0.626736 0.187092 0.30908
572 1 0.750257 0.194221 0.312855
576 1 0.873828 0.191538 0.312797
548 1 0.00110191 0.183768 0.311056
579 1 0.0617899 0.243665 0.310353
583 1 0.186092 0.251598 0.311249
587 1 0.311667 0.251123 0.309516
591 1 0.435097 0.246888 0.312165
595 1 0.565016 0.248964 0.311528
599 1 0.686089 0.250602 0.312732
603 1 0.812366 0.255813 0.310984
607 1 0.940865 0.248232 0.3102
580 1 0.000650696 0.308914 0.310377
584 1 0.121806 0.305456 0.309525
588 1 0.250203 0.312175 0.311224
592 1 0.374097 0.315847 0.311584
596 1 0.500992 0.31459 0.318159
600 1 0.625635 0.310883 0.311769
604 1 0.750617 0.312256 0.31451
608 1 0.878242 0.314641 0.311432
611 1 0.0610834 0.369931 0.314984
615 1 0.180195 0.368347 0.312738
619 1 0.306048 0.378086 0.314182
623 1 0.435307 0.37844 0.313973
627 1 0.567179 0.37829 0.318374
631 1 0.684305 0.372281 0.316071
635 1 0.810924 0.375898 0.312639
639 1 0.940366 0.375804 0.314682
612 1 0.000708751 0.438516 0.314514
616 1 0.120097 0.433522 0.312622
620 1 0.246467 0.437801 0.313322
624 1 0.373639 0.434927 0.316172
628 1 0.503826 0.44022 0.313626
632 1 0.626448 0.441313 0.317547
636 1 0.746573 0.438391 0.317884
640 1 0.874194 0.438306 0.313378
643 1 0.0638061 0.500855 0.311545
647 1 0.180528 0.49938 0.311491
651 1 0.31369 0.499421 0.312711
655 1 0.440973 0.501025 0.313844
659 1 0.566167 0.503161 0.317272
663 1 0.686351 0.498755 0.315168
667 1 0.811474 0.500616 0.314059
671 1 0.934255 0.498229 0.310485
648 1 0.125374 0.566791 0.312798
652 1 0.248374 0.557535 0.309953
656 1 0.379807 0.558689 0.309496
660 1 0.50166 0.565175 0.315957
664 1 0.628737 0.563257 0.307945
668 1 0.750413 0.562236 0.314367
672 1 0.870501 0.564581 0.312216
644 1 0.0051062 0.563181 0.312539
675 1 0.0635454 0.625937 0.312929
679 1 0.186728 0.625573 0.311162
683 1 0.311243 0.628148 0.310641
687 1 0.439096 0.627163 0.310378
691 1 0.561668 0.625067 0.311197
695 1 0.69024 0.623942 0.313507
699 1 0.813098 0.62607 0.309934
703 1 0.933112 0.624083 0.317101
680 1 0.125529 0.689897 0.314267
684 1 0.252974 0.686223 0.31501
688 1 0.373539 0.68295 0.311761
692 1 0.499667 0.688717 0.311134
696 1 0.622625 0.691113 0.315101
700 1 0.751444 0.688175 0.317637
704 1 0.876782 0.686628 0.307141
676 1 0.00288424 0.689126 0.315109
707 1 0.0640999 0.747487 0.31095
711 1 0.187729 0.751489 0.308759
715 1 0.31059 0.74398 0.31107
719 1 0.436792 0.750017 0.313633
723 1 0.560397 0.750352 0.315867
727 1 0.687211 0.749718 0.315584
731 1 0.81171 0.747221 0.311176
735 1 0.937481 0.746707 0.312726
708 1 0.998564 0.811722 0.310675
712 1 0.124062 0.80945 0.310777
716 1 0.251534 0.810236 0.313173
720 1 0.37616 0.812025 0.309804
724 1 0.499132 0.81652 0.315265
728 1 0.62127 0.811434 0.31607
732 1 0.755987 0.812397 0.312275
736 1 0.875301 0.807457 0.314687
739 1 0.0657749 0.872154 0.312505
743 1 0.191251 0.868721 0.310905
747 1 0.312774 0.877732 0.314003
751 1 0.437224 0.879293 0.313829
755 1 0.563968 0.874216 0.311423
759 1 0.689403 0.872266 0.308873
763 1 0.817144 0.870943 0.309645
767 1 0.939272 0.872601 0.310243
744 1 0.129095 0.935304 0.31224
748 1 0.24928 0.935284 0.30906
752 1 0.374366 0.936205 0.311385
756 1 0.503317 0.9408 0.311683
760 1 0.631779 0.938757 0.312804
764 1 0.749874 0.937197 0.310795
768 1 0.87771 0.93893 0.31059
740 1 0.00465872 0.931892 0.312473
515 1 0.061565 0.997926 0.311819
519 1 0.190982 0.997029 0.312393
769 1 -0.000157749 0.99487 0.374466
773 1 0.123616 0.995185 0.371661
777 1 0.249259 0.996593 0.374154
781 1 0.376947 1.00085 0.376312
789 1 0.624729 0.00185225 0.374158
793 1 0.754543 0.000458233 0.36935
770 1 0.0596743 0.0578939 0.375536
774 1 0.186495 0.0587075 0.370042
778 1 0.311209 0.0609254 0.374505
782 1 0.436544 0.0612284 0.376316
786 1 0.561 0.0668231 0.371676
790 1 0.688811 0.0647342 0.374027
794 1 0.814291 0.0611242 0.372842
798 1 0.934171 0.0631706 0.376892
805 1 0.125909 0.120555 0.375294
809 1 0.24774 0.126511 0.379304
813 1 0.375872 0.125538 0.374512
817 1 0.499067 0.126679 0.372979
821 1 0.626861 0.128898 0.370607
825 1 0.752676 0.12621 0.375576
829 1 0.875289 0.126182 0.377076
801 1 0.996956 0.123346 0.373684
802 1 0.0635504 0.18227 0.372495
806 1 0.184838 0.189714 0.372753
810 1 0.309698 0.18648 0.374028
814 1 0.435236 0.187871 0.379354
818 1 0.565131 0.186108 0.373207
822 1 0.69245 0.187853 0.374874
826 1 0.816514 0.190463 0.3718
830 1 0.93714 0.185431 0.371936
833 1 -0.000434319 0.245503 0.374027
837 1 0.12232 0.249262 0.373665
841 1 0.250503 0.251779 0.377333
845 1 0.370061 0.252498 0.372883
849 1 0.499822 0.246803 0.377084
853 1 0.619818 0.251342 0.373716
857 1 0.751767 0.252201 0.375354
861 1 0.877066 0.254831 0.372602
834 1 0.0607234 0.31259 0.377013
838 1 0.187325 0.30713 0.374284
842 1 0.312261 0.310555 0.368926
846 1 0.436182 0.314724 0.376837
850 1 0.561452 0.308169 0.376108
854 1 0.689767 0.310463 0.378012
858 1 0.809588 0.31527 0.373849
862 1 0.942263 0.316076 0.374209
865 1 0.00272157 0.373723 0.374353
869 1 0.124825 0.369608 0.376273
873 1 0.247359 0.372286 0.373871
877 1 0.373932 0.372641 0.375747
881 1 0.499307 0.373933 0.379021
885 1 0.624788 0.36802 0.379521
889 1 0.750764 0.376806 0.379344
893 1 0.874254 0.377511 0.373659
866 1 0.0627003 0.437011 0.373624
870 1 0.18119 0.43233 0.371116
874 1 0.306999 0.438537 0.37482
878 1 0.440347 0.43786 0.373967
882 1 0.561982 0.437895 0.38277
886 1 0.682448 0.434241 0.379155
890 1 0.811179 0.442691 0.376285
894 1 0.938471 0.435213 0.377569
901 1 0.120804 0.500132 0.373032
905 1 0.245774 0.499156 0.374105
909 1 0.373575 0.497645 0.379327
913 1 0.499222 0.497522 0.376052
917 1 0.62213 0.501797 0.382436
921 1 0.746458 0.501514 0.375375
925 1 0.877178 0.499565 0.375546
897 1 0.99955 0.497408 0.371988
898 1 0.0650177 0.564773 0.377242
902 1 0.185924 0.55734 0.37478
906 1 0.30869 0.561774 0.378119
910 1 0.437335 0.560162 0.3754
914 1 0.561219 0.564861 0.377034
918 1 0.688648 0.562108 0.376608
922 1 0.812631 0.559596 0.378657
926 1 0.93706 0.558923 0.371805
933 1 0.123947 0.62607 0.374576
937 1 0.2429 0.624815 0.374761
941 1 0.374675 0.623801 0.373328
945 1 0.498307 0.626663 0.376559
949 1 0.627321 0.622661 0.37345
953 1 0.747795 0.623221 0.379243
957 1 0.870469 0.627154 0.375148
929 1 0.997205 0.621497 0.370412
930 1 0.0634701 0.686992 0.373111
934 1 0.186518 0.686543 0.378698
938 1 0.312242 0.687271 0.377349
942 1 0.439172 0.68624 0.370762
946 1 0.556243 0.689711 0.37508
950 1 0.683134 0.688875 0.379115
954 1 0.813903 0.690246 0.374872
958 1 0.937198 0.68372 0.37196
961 1 0.00198507 0.749212 0.377287
965 1 0.130384 0.754086 0.374299
969 1 0.250502 0.749029 0.374709
973 1 0.375961 0.748596 0.373556
977 1 0.496131 0.751195 0.376274
981 1 0.623728 0.750845 0.378998
985 1 0.748171 0.751357 0.374892
989 1 0.877389 0.746527 0.375262
962 1 0.0626908 0.812083 0.375163
966 1 0.190394 0.810669 0.373359
970 1 0.315036 0.813899 0.375897
974 1 0.436882 0.813212 0.377315
978 1 0.561238 0.815415 0.376963
982 1 0.690445 0.813305 0.372576
986 1 0.812105 0.807082 0.373488
990 1 0.930547 0.810315 0.37633
993 1 0.998889 0.868704 0.374251
997 1 0.129887 0.870326 0.376559
1001 1 0.254185 0.874242 0.376537
1005 1 0.381057 0.872664 0.376397
1009 1 0.503802 0.878489 0.375718
1013 1 0.626991 0.877481 0.374331
1017 1 0.756559 0.874608 0.371316
1021 1 0.87318 0.876312 0.37239
998 1 0.186318 0.93399 0.373458
1002 1 0.313348 0.936898 0.380118
1006 1 0.43631 0.937576 0.374926
1010 1 0.563219 0.939815 0.376838
1014 1 0.692621 0.938079 0.371465
1018 1 0.812539 0.939125 0.373018
1022 1 0.93987 0.930944 0.377389
994 1 0.063389 0.936237 0.374096
785 1 0.495259 -0.00011687 0.37556
797 1 0.876412 0.999766 0.376591
775 1 0.183205 0.00177659 0.432492
779 1 0.308835 0.000552259 0.437948
791 1 0.690673 1.00122 0.433968
795 1 0.81358 1.00002 0.436287
799 1 0.938155 0.999514 0.435996
776 1 0.122651 0.0584872 0.431662
780 1 0.249754 0.0627703 0.438386
784 1 0.371171 0.0641933 0.437688
788 1 0.497561 0.0655312 0.4383
792 1 0.619698 0.0645388 0.42952
796 1 0.749581 0.0607465 0.434271
800 1 0.871819 0.058716 0.438895
772 1 0.995794 0.0588093 0.436347
803 1 0.0580077 0.124511 0.434686
807 1 0.183935 0.119506 0.441304
811 1 0.310739 0.126126 0.442294
815 1 0.434811 0.129278 0.440047
819 1 0.562332 0.125429 0.437909
823 1 0.691327 0.127845 0.436176
827 1 0.811971 0.126805 0.434461
831 1 0.933561 0.121287 0.438061
808 1 0.12273 0.18645 0.438728
812 1 0.247252 0.19 0.437522
816 1 0.369388 0.189238 0.43641
820 1 0.49796 0.183033 0.439082
824 1 0.626114 0.186484 0.436191
828 1 0.751066 0.189372 0.436731
832 1 0.87663 0.187157 0.432608
804 1 0.99667 0.180821 0.434964
835 1 0.0581878 0.246014 0.435338
839 1 0.183324 0.246615 0.437924
843 1 0.315128 0.247768 0.436469
847 1 0.432792 0.249651 0.435319
851 1 0.563433 0.244627 0.439838
855 1 0.691183 0.250741 0.434727
859 1 0.816673 0.248409 0.434783
863 1 0.940304 0.249793 0.4351
836 1 1.00107 0.312759 0.435948
840 1 0.12488 0.3123 0.436057
844 1 0.248137 0.312602 0.438512
848 1 0.370341 0.312404 0.436867
852 1 0.501606 0.310135 0.437279
856 1 0.622843 0.31114 0.440472
860 1 0.751429 0.313812 0.438885
864 1 0.875474 0.312202 0.440986
867 1 0.060842 0.375649 0.434145
871 1 0.186075 0.373564 0.434014
875 1 0.308708 0.36976 0.433508
879 1 0.437893 0.36813 0.443457
883 1 0.561356 0.373459 0.438418
887 1 0.686125 0.370898 0.440147
891 1 0.815814 0.374246 0.438481
895 1 0.932906 0.373551 0.4363
872 1 0.124039 0.439119 0.435911
876 1 0.247697 0.433483 0.434484
880 1 0.3732 0.434716 0.442552
884 1 0.497621 0.438658 0.44455
888 1 0.62302 0.43865 0.442294
892 1 0.753912 0.436142 0.440494
896 1 0.874353 0.43659 0.437017
868 1 0.996917 0.434904 0.43761
899 1 0.0610249 0.497202 0.433791
903 1 0.187742 0.498618 0.437965
907 1 0.311382 0.498286 0.439793
911 1 0.437325 0.497471 0.436627
915 1 0.561736 0.501986 0.441332
919 1 0.689571 0.500622 0.439423
923 1 0.812148 0.501932 0.443854