
Host: cs276.hpc.nyu.edu

Timers On : Thu Nov 30 11:05:21 2023
Timers Off: Thu Nov 30 11:05:21 2023

Wall Time:        0.40 seconds

                                                       Time (seconds)
Module                                       User      System        Wall        Calls

--------------------------------------------------------------------------------------

**************************************************************************************
